Notes about ANO-RCC
===================

Curator Notes
----------------

v1 comes from OpenMolcas (downloaded from Gitlab 2019-03-04)

BPP: The version of ANO-RCC in OpenMolcas (as of 2019-03-04) contains
an extra exponent on the g-shell of Gd. Roland Lindh confirms that this
exponent is ignored in Molcas.
