Truncated form of ANO-RCC. See notes for ANO-RCC for details on that basis set.
Contraction information taken from basis_library/basis.tbl in OpenMolcas 2020-01-08 by BPP
